<PP_INFO>
Generated using APE Version-2.2.0
Author: Unknown Generation date: 2014/08/08
Pseudopotential for: Bi
Exchange-correlation: Perdew-Wang LDA
    2        The Pseudo was generated with a Fully-Relativistic Calculation
State   n   l    occ     rc         ev
6s0.5   6   0    2.00    1.50     -0.539255
6p0.5   6   1    1.00    1.50     -0.228705
6p1.5   6   1    2.00    1.70     -0.156362
</PP_INFO>
<PP_HEADER>
   0                   Version Number
  Bi                   Element
   NC                  Norm - Conserving pseudopotential
    F                  Nonlinear Core Correction
 SLA  PW   NOGX NOGC        Exchange-Correlation functional
    5.00000000000      Z valence
    0.00000000000      Total energy
  0.0000000  0.0000000 Suggested cutoff for wfc and rho
    1                  Max angular momentum component
 1800                  Number of points in mesh
    3    3             Number of Wavefunctions, Number of Projectors
 Wavefunctions         nl  l   occ
                       6s  0  2.00
                       6p  1  1.00
                       6p  1  2.00
</PP_HEADER>
<PP_MESH>
  <PP_R>
  9.11043334900E-05  9.18627486975E-05  9.26274774754E-05  9.33985723824E-05
  9.41760864143E-05  9.49600730084E-05  9.57505860468E-05  9.65476798600E-05
  9.73514092311E-05  9.81618293989E-05  9.89789960623E-05  9.98029653836E-05
  1.00633793993E-04  1.01471538992E-04  1.02316257957E-04  1.03168008944E-04
  1.04026850494E-04  1.04892841631E-04  1.05766041876E-04  1.06646511240E-04
  1.07534310238E-04  1.08429499885E-04  1.09332141708E-04  1.10242297743E-04
  1.11160030544E-04  1.12085403184E-04  1.13018479264E-04  1.13959322911E-04
  1.14907998789E-04  1.15864572098E-04  1.16829108582E-04  1.17801674531E-04
  1.18782336790E-04  1.19771162756E-04  1.20768220391E-04  1.21773578220E-04
  1.22787305340E-04  1.23809471422E-04  1.24840146719E-04  1.25879402067E-04
  1.26927308892E-04  1.27983939215E-04  1.29049365656E-04  1.30123661441E-04
  1.31206900403E-04  1.32299156993E-04  1.33400506279E-04  1.34511023954E-04
  1.35630786343E-04  1.36759870406E-04  1.37898353742E-04  1.39046314597E-04
  1.40203831868E-04  1.41370985111E-04  1.42547854541E-04  1.43734521042E-04
  1.44931066173E-04  1.46137572169E-04  1.47354121952E-04  1.48580799133E-04
  1.49817688019E-04  1.51064873620E-04  1.52322441654E-04  1.53590478549E-04
  1.54869071457E-04  1.56158308252E-04  1.57458277543E-04  1.58769068673E-04
  1.60090771731E-04  1.61423477555E-04  1.62767277740E-04  1.64122264644E-04
  1.65488531391E-04  1.66866171884E-04  1.68255280805E-04  1.69655953625E-04
  1.71068286610E-04  1.72492376827E-04  1.73928322152E-04  1.75376221275E-04
  1.76836173707E-04  1.78308279789E-04  1.79792640695E-04  1.81289358444E-04
  1.82798535901E-04  1.84320276791E-04  1.85854685701E-04  1.87401868086E-04
  1.88961930283E-04  1.90534979513E-04  1.92121123887E-04  1.93720472419E-04
  1.95333135030E-04  1.96959222554E-04  1.98598846751E-04  2.00252120309E-04
  2.01919156855E-04  2.03600070961E-04  2.05294978153E-04  2.07003994919E-04
  2.08727238719E-04  2.10464827986E-04  2.12216882143E-04  2.13983521605E-04
  2.15764867790E-04  2.17561043128E-04  2.19372171066E-04  2.21198376081E-04
  2.23039783683E-04  2.24896520430E-04  2.26768713933E-04  2.28656492863E-04
  2.30559986965E-04  2.32479327063E-04  2.34414645070E-04  2.36366073996E-04
  2.38333747961E-04  2.40317802198E-04  2.42318373070E-04  2.44335598070E-04
  2.46369615841E-04  2.48420566177E-04  2.50488590035E-04  2.52573829548E-04
  2.54676428030E-04  2.56796529991E-04  2.58934281140E-04  2.61089828401E-04
  2.63263319922E-04  2.65454905084E-04  2.67664734509E-04  2.69892960076E-04
  2.72139734928E-04  2.74405213480E-04  2.76689551436E-04  2.78992905794E-04
  2.81315434859E-04  2.83657298256E-04  2.86018656937E-04  2.88399673193E-04
  2.90800510668E-04  2.93221334368E-04  2.95662310671E-04  2.98123607342E-04
  3.00605393541E-04  3.03107839837E-04  3.05631118220E-04  3.08175402109E-04
  3.10740866370E-04  3.13327687321E-04  3.15936042752E-04  3.18566111929E-04
  3.21218075613E-04  3.23892116069E-04  3.26588417079E-04  3.29307163956E-04
  3.32048543554E-04  3.34812744283E-04  3.37599956122E-04  3.40410370633E-04
  3.43244180969E-04  3.46101581893E-04  3.48982769790E-04  3.51887942680E-04
  3.54817300229E-04  3.57771043768E-04  3.60749376302E-04  3.63752502526E-04
  3.66780628842E-04  3.69833963366E-04  3.72912715949E-04  3.76017098189E-04
  3.79147323444E-04  3.82303606850E-04  3.85486165332E-04  3.88695217623E-04
  3.91930984275E-04  3.95193687676E-04  3.98483552068E-04  4.01800803556E-04
  4.05145670130E-04  4.08518381676E-04  4.11919169996E-04  4.15348268819E-04
  4.18805913823E-04  4.22292342644E-04  4.25807794900E-04  4.29352512201E-04
  4.32926738170E-04  4.36530718458E-04  4.40164700758E-04  4.43828934830E-04
  4.47523672510E-04  4.51249167730E-04  4.55005676538E-04  4.58793457112E-04
  4.62612769780E-04  4.66463877036E-04  4.70347043561E-04  4.74262536239E-04
  4.78210624173E-04  4.82191578710E-04  4.86205673455E-04  4.90253184288E-04
  4.94334389388E-04  4.98449569250E-04  5.02599006703E-04  5.06782986930E-04
  5.11001797490E-04  5.15255728335E-04  5.19545071829E-04  5.23870122772E-04
  5.28231178417E-04  5.32628538493E-04  5.37062505222E-04  5.41533383343E-04
  5.46041480132E-04  5.50587105424E-04  5.55170571630E-04  5.59792193766E-04
  5.64452289466E-04  5.69151179013E-04  5.73889185351E-04  5.78666634117E-04
  5.83483853656E-04  5.88341175048E-04  5.93238932128E-04  5.98177461511E-04
  6.03157102613E-04  6.08178197676E-04  6.13241091793E-04  6.18346132926E-04
  6.23493671937E-04  6.28684062608E-04  6.33917661665E-04  6.39194828804E-04
  6.44515926716E-04  6.49881321111E-04  6.55291380745E-04  6.60746477440E-04
  6.66246986116E-04  6.71793284814E-04  6.77385754722E-04  6.83024780200E-04
  6.88710748810E-04  6.94444051338E-04  7.00225081824E-04  7.06054237588E-04
  7.11931919259E-04  7.17858530800E-04  7.23834479537E-04  7.29860176186E-04
  7.35936034883E-04  7.42062473212E-04  7.48239912232E-04  7.54468776509E-04
  7.60749494141E-04  7.67082496791E-04  7.73468219717E-04  7.79907101797E-04
  7.86399585566E-04  7.92946117241E-04  7.99547146753E-04  8.06203127781E-04
  8.12914517778E-04  8.19681778006E-04  8.26505373569E-04  8.33385773441E-04
  8.40323450498E-04  8.47318881557E-04  8.54372547402E-04  8.61484932817E-04
  8.68656526627E-04  8.75887821722E-04  8.83179315097E-04  8.90531507884E-04
  8.97944905387E-04  9.05420017115E-04  9.12957356821E-04  9.20557442533E-04
  9.28220796591E-04  9.35947945686E-04  9.43739420891E-04  9.51595757701E-04
  9.59517496069E-04  9.67505180442E-04  9.75559359799E-04  9.83680587692E-04
  9.91869422279E-04  1.00012642636E-03  1.00845216744E-03  1.01684721771E-03
  1.02531215416E-03  1.03384755858E-03  1.04245401757E-03  1.05113212266E-03
  1.05988247027E-03  1.06870566181E-03  1.07760230366E-03  1.08657300728E-03
  1.09561838922E-03  1.10473907115E-03  1.11393567992E-03  1.12320884759E-03
  1.13255921149E-03  1.14198741426E-03  1.15149410388E-03  1.16107993374E-03
  1.17074556264E-03  1.18049165489E-03  1.19031888033E-03  1.20022791436E-03
  1.21021943801E-03  1.22029413798E-03  1.23045270669E-03  1.24069584233E-03
  1.25102424888E-03  1.26143863620E-03  1.27193972005E-03  1.28252822215E-03
  1.29320487024E-03  1.30397039809E-03  1.31482554562E-03  1.32577105886E-03
  1.33680769010E-03  1.34793619785E-03  1.35915734697E-03  1.37047190866E-03
  1.38188066055E-03  1.39338438675E-03  1.40498387788E-03  1.41667993117E-03
  1.42847335046E-03  1.44036494630E-03  1.45235553596E-03  1.46444594355E-03
  1.47663700002E-03  1.48892954324E-03  1.50132441805E-03  1.51382247634E-03
  1.52642457707E-03  1.53913158636E-03  1.55194437755E-03  1.56486383124E-03
  1.57789083535E-03  1.59102628522E-03  1.60427108362E-03  1.61762614084E-03
  1.63109237476E-03  1.64467071087E-03  1.65836208241E-03  1.67216743035E-03
  1.68608770352E-03  1.70012385862E-03  1.71427686035E-03  1.72854768141E-03
  1.74293730260E-03  1.75744671292E-03  1.77207690956E-03  1.78682889803E-03
  1.80170369221E-03  1.81670231441E-03  1.83182579548E-03  1.84707517482E-03
  1.86245150050E-03  1.87795582929E-03  1.89358922680E-03  1.90935276747E-03
  1.92524753471E-03  1.94127462094E-03  1.95743512767E-03  1.97373016559E-03
  1.99016085462E-03  2.00672832402E-03  2.02343371245E-03  2.04027816803E-03
  2.05726284846E-03  2.07438892107E-03  2.09165756290E-03  2.10906996079E-03
  2.12662731148E-03  2.14433082164E-03  2.16218170801E-03  2.18018119745E-03
  2.19833052704E-03  2.21663094415E-03  2.23508370652E-03  2.25369008240E-03
  2.27245135057E-03  2.29136880045E-03  2.31044373221E-03  2.32967745683E-03
  2.34907129623E-03  2.36862658330E-03  2.38834466204E-03  2.40822688765E-03
  2.42827462660E-03  2.44848925673E-03  2.46887216736E-03  2.48942475938E-03
  2.51014844532E-03  2.53104464950E-03  2.55211480807E-03  2.57336036915E-03
  2.59478279291E-03  2.61638355168E-03  2.63816413004E-03  2.66012602493E-03
  2.68227074575E-03  2.70459981449E-03  2.72711476576E-03  2.74981714700E-03
  2.77270851849E-03  2.79579045351E-03  2.81906453847E-03  2.84253237293E-03
  2.86619556980E-03  2.89005575542E-03  2.91411456966E-03  2.93837366603E-03
  2.96283471182E-03  2.98749938821E-03  3.01236939035E-03  3.03744642751E-03
  3.06273222319E-03  3.08822851525E-03  3.11393705600E-03  3.13985961235E-03
  3.16599796591E-03  3.19235391313E-03  3.21892926539E-03  3.24572584919E-03
  3.27274550621E-03  3.29999009345E-03  3.32746148340E-03  3.35516156412E-03
  3.38309223939E-03  3.41125542883E-03  3.43965306805E-03  3.46828710877E-03
  3.49715951897E-03  3.52627228299E-03  3.55562740171E-03  3.58522689265E-03
  3.61507279014E-03  3.64516714543E-03  3.67551202685E-03  3.70610951996E-03
  3.73696172768E-03  3.76807077042E-03  3.79943878625E-03  3.83106793105E-03
  3.86296037863E-03  3.89511832090E-03  3.92754396803E-03  3.96023954857E-03
  3.99320730964E-03  4.02644951706E-03  4.05996845550E-03  4.09376642867E-03
  4.12784575944E-03  4.16220879003E-03  4.19685788214E-03  4.23179541716E-03
  4.26702379628E-03  4.30254544068E-03  4.33836279172E-03  4.37447831105E-03
  4.41089448083E-03  4.44761380388E-03  4.48463880386E-03  4.52197202545E-03
  4.55961603447E-03  4.59757341815E-03  4.63584678523E-03  4.67443876617E-03
  4.71335201333E-03  4.75258920116E-03  4.79215302636E-03  4.83204620809E-03
  4.87227148813E-03  4.91283163111E-03  4.95372942464E-03  4.99496767957E-03
  5.03654923013E-03  5.07847693415E-03  5.12075367325E-03  5.16338235304E-03
  5.20636590331E-03  5.24970727826E-03  5.29340945666E-03  5.33747544208E-03
  5.38190826311E-03  5.42671097354E-03  5.47188665258E-03  5.51743840509E-03
  5.56336936175E-03  5.60968267932E-03  5.65638154084E-03  5.70346915584E-03
  5.75094876057E-03  5.79882361822E-03  5.84709701916E-03  5.89577228113E-03
  5.94485274950E-03  5.99434179749E-03  6.04424282638E-03  6.09455926581E-03
  6.14529457393E-03  6.19645223768E-03  6.24803577306E-03  6.30004872531E-03
  6.35249466919E-03  6.40537720922E-03  6.45869997993E-03  6.51246664611E-03
  6.56668090303E-03  6.62134647677E-03  6.67646712438E-03  6.73204663422E-03
  6.78808882617E-03  6.84459755192E-03  6.90157669522E-03  6.95903017214E-03
  7.01696193136E-03  7.07537595445E-03  7.13427625608E-03  7.19366688439E-03
  7.25355192118E-03  7.31393548225E-03  7.37482171767E-03  7.43621481204E-03
  7.49811898481E-03  7.56053849053E-03  7.62347761921E-03  7.68694069653E-03
  7.75093208421E-03  7.81545618026E-03  7.88051741933E-03  7.94612027294E-03
  8.01226924989E-03  8.07896889647E-03  8.14622379684E-03  8.21403857332E-03
  8.28241788669E-03  8.35136643655E-03  8.42088896162E-03  8.49099024007E-03
  8.56167508982E-03  8.63294836895E-03  8.70481497592E-03  8.77727985002E-03
  8.85034797164E-03  8.92402436261E-03  8.99831408660E-03  9.07322224940E-03
  9.14875399934E-03  9.22491452757E-03  9.30170906849E-03  9.37914290004E-03
  9.45722134414E-03  9.53594976696E-03  9.61533357939E-03  9.69537823735E-03
  9.77608924215E-03  9.85747214093E-03  9.93953252701E-03  1.00222760402E-02
  1.01057083675E-02  1.01898352428E-02  1.02746624482E-02  1.03601958137E-02
  1.04464412178E-02  1.05334045881E-02  1.06210919013E-02  1.07095091841E-02
  1.07986625132E-02  1.08885580161E-02  1.09792018710E-02  1.10706003078E-02
  1.11627596081E-02  1.12556861059E-02  1.13493861878E-02  1.14438662938E-02
  1.15391329172E-02  1.16351926056E-02  1.17320519610E-02  1.18297176403E-02
  1.19281963561E-02  1.20274948764E-02  1.21276200261E-02  1.22285786864E-02
  1.23303777961E-02  1.24330243518E-02  1.25365254080E-02  1.26408880783E-02
  1.27461195353E-02  1.28522270115E-02  1.29592177993E-02  1.30670992522E-02
  1.31758787845E-02  1.32855638726E-02  1.33961620548E-02  1.35076809325E-02
  1.36201281702E-02  1.37335114961E-02  1.38478387028E-02  1.39631176480E-02
  1.40793562544E-02  1.41965625111E-02  1.43147444734E-02  1.44339102637E-02
  1.45540680721E-02  1.46752261568E-02  1.47973928449E-02  1.49205765326E-02
  1.50447856862E-02  1.51700288422E-02  1.52963146086E-02  1.54236516646E-02
  1.55520487620E-02  1.56815147252E-02  1.58120584523E-02  1.59436889152E-02
  1.60764151607E-02  1.62102463110E-02  1.63451915638E-02  1.64812601939E-02
  1.66184615529E-02  1.67568050706E-02  1.68963002549E-02  1.70369566933E-02
  1.71787840526E-02  1.73217920806E-02  1.74659906059E-02  1.76113895390E-02
  1.77579988729E-02  1.79058286839E-02  1.80548891320E-02  1.82051904620E-02
  1.83567430037E-02  1.85095571732E-02  1.86636434730E-02  1.88190124933E-02
  1.89756749123E-02  1.91336414971E-02  1.92929231046E-02  1.94535306818E-02
  1.96154752672E-02  1.97787679908E-02  1.99434200754E-02  2.01094428374E-02
  2.02768476872E-02  2.04456461302E-02  2.06158497677E-02  2.07874702975E-02
  2.09605195148E-02  2.11350093129E-02  2.13109516842E-02  2.14883587210E-02
  2.16672426162E-02  2.18476156640E-02  2.20294902614E-02  2.22128789081E-02
  2.23977942082E-02  2.25842488706E-02  2.27722557099E-02  2.29618276477E-02
  2.31529777129E-02  2.33457190428E-02  2.35400648842E-02  2.37360285943E-02
  2.39336236412E-02  2.41328636054E-02  2.43337621802E-02  2.45363331732E-02
  2.47405905065E-02  2.49465482186E-02  2.51542204644E-02  2.53636215171E-02
  2.55747657683E-02  2.57876677296E-02  2.60023420335E-02  2.62188034341E-02
  2.64370668085E-02  2.66571471575E-02  2.68790596069E-02  2.71028194083E-02
  2.73284419404E-02  2.75559427098E-02  2.77853373523E-02  2.80166416337E-02
  2.82498714513E-02  2.84850428344E-02  2.87221719461E-02  2.89612750839E-02
  2.92023686807E-02  2.94454693067E-02  2.96905936698E-02  2.99377586168E-02
  3.01869811350E-02  3.04382783531E-02  3.06916675423E-02  3.09471661176E-02
  3.12047916389E-02  3.14645618125E-02  3.17264944919E-02  3.19906076793E-02
  3.22569195268E-02  3.25254483374E-02  3.27962125668E-02  3.30692308241E-02
  3.33445218733E-02  3.36221046348E-02  3.39019981864E-02  3.41842217647E-02
  3.44687947663E-02  3.47557367496E-02  3.50450674355E-02  3.53368067093E-02
  3.56309746217E-02  3.59275913904E-02  3.62266774013E-02  3.65282532101E-02
  3.68323395436E-02  3.71389573012E-02  3.74481275561E-02  3.77598715571E-02
  3.80742107298E-02  3.83911666783E-02  3.87107611864E-02  3.90330162192E-02
  3.93579539248E-02  3.96855966357E-02  4.00159668700E-02  4.03490873337E-02
  4.06849809216E-02  4.10236707190E-02  4.13651800034E-02  4.17095322463E-02
  4.20567511144E-02  4.24068604715E-02  4.27598843800E-02  4.31158471025E-02
  4.34747731039E-02  4.38366870525E-02  4.42016138220E-02  4.45695784932E-02
  4.49406063557E-02  4.53147229097E-02  4.56919538674E-02  4.60723251555E-02
  4.64558629160E-02  4.68425935090E-02  4.72325435138E-02  4.76257397309E-02
  4.80222091841E-02  4.84219791220E-02  4.88250770202E-02  4.92315305828E-02
  4.96413677448E-02  5.00546166736E-02  5.04713057710E-02  5.08914636754E-02
  5.13151192635E-02  5.17423016525E-02  5.21730402018E-02  5.26073645154E-02
  5.30453044437E-02  5.34868900856E-02  5.39321517904E-02  5.43811201602E-02
  5.48338260519E-02  5.52903005792E-02  5.57505751148E-02  5.62146812926E-02
  5.66826510098E-02  5.71545164292E-02  5.76303099812E-02  5.81100643664E-02
  5.85938125575E-02  5.90815878017E-02  5.95734236228E-02  6.00693538241E-02
  6.05694124898E-02  6.10736339882E-02  6.15820529735E-02  6.20947043886E-02
  6.26116234671E-02  6.31328457360E-02  6.36584070180E-02  6.41883434339E-02
  6.47226914056E-02  6.52614876577E-02  6.58047692208E-02  6.63525734337E-02
  6.69049379462E-02  6.74619007212E-02  6.80235000379E-02  6.85897744940E-02
  6.91607630087E-02  6.97365048249E-02  7.03170395125E-02  7.09024069705E-02
  7.14926474304E-02  7.20878014583E-02  7.26879099582E-02  7.32930141745E-02
  7.39031556949E-02  7.45183764536E-02  7.51387187334E-02  7.57642251696E-02
  7.63949387521E-02  7.70309028287E-02  7.76721611083E-02  7.83187576634E-02
  7.89707369334E-02  7.96281437278E-02  8.02910232291E-02  8.09594209959E-02
  8.16333829659E-02  8.23129554594E-02  8.29981851824E-02  8.36891192294E-02
  8.43858050872E-02  8.50882906379E-02  8.57966241620E-02  8.65108543421E-02
  8.72310302661E-02  8.79572014304E-02  8.86894177435E-02  8.94277295294E-02
  9.01721875310E-02  9.09228429137E-02  9.16797472687E-02  9.24429526167E-02
  9.32125114117E-02  9.39884765439E-02  9.47709013443E-02  9.55598395875E-02
  9.63553454959E-02  9.71574737432E-02  9.79662794585E-02  9.87818182295E-02
  9.96041461068E-02  1.00433319608E-01  1.01269395720E-01  1.02112431905E-01
  1.02962486104E-01  1.03819616740E-01  1.04683882721E-01  1.05555343447E-01
  1.06434058813E-01  1.07320089210E-01  1.08213495534E-01  1.09114339188E-01
  1.10022682085E-01  1.10938586654E-01  1.11862115843E-01  1.12793333125E-01
  1.13732302501E-01  1.14679088504E-01  1.15633756206E-01  1.16596371220E-01
  1.17566999703E-01  1.18545708367E-01  1.19532564475E-01  1.20527635854E-01
  1.21530990891E-01  1.22542698547E-01  1.23562828354E-01  1.24591450424E-01
  1.25628635453E-01  1.26674454724E-01  1.27728980115E-01  1.28792284101E-01
  1.29864439762E-01  1.30945520784E-01  1.32035601470E-01  1.33134756738E-01
  1.34243062131E-01  1.35360593822E-01  1.36487428616E-01  1.37623643959E-01
  1.38769317940E-01  1.39924529301E-01  1.41089357437E-01  1.42263882404E-01
  1.43448184926E-01  1.44642346397E-01  1.45846448891E-01  1.47060575163E-01
  1.48284808659E-01  1.49519233517E-01  1.50763934577E-01  1.52018997386E-01
  1.53284508203E-01  1.54560554003E-01  1.55847222486E-01  1.57144602085E-01
  1.58452781964E-01  1.59771852034E-01  1.61101902951E-01  1.62443026128E-01
  1.63795313738E-01  1.65158858721E-01  1.66533754791E-01  1.67920096443E-01
  1.69317978958E-01  1.70727498409E-01  1.72148751671E-01  1.73581836423E-01
  1.75026851160E-01  1.76483895195E-01  1.77953068668E-01  1.79434472552E-01
  1.80928208662E-01  1.82434379660E-01  1.83953089063E-01  1.85484441249E-01
  1.87028541465E-01  1.88585495834E-01  1.90155411364E-01  1.91738395951E-01
  1.93334558392E-01  1.94944008389E-01  1.96566856556E-01  1.98203214428E-01
  1.99853194470E-01  2.01516910082E-01  2.03194475609E-01  2.04886006346E-01
  2.06591618550E-01  2.08311429444E-01  2.10045557228E-01  2.11794121087E-01
  2.13557241195E-01  2.15335038728E-01  2.17127635873E-01  2.18935155831E-01
  2.20757722829E-01  2.22595462131E-01  2.24448500039E-01  2.26316963912E-01
  2.28200982164E-01  2.30100684281E-01  2.32016200828E-01  2.33947663452E-01
  2.35895204902E-01  2.37858959028E-01  2.39839060796E-01  2.41835646294E-01
  2.43848852745E-01  2.45878818512E-01  2.47925683113E-01  2.49989587223E-01
  2.52070672693E-01  2.54169082552E-01  2.56284961019E-01  2.58418453515E-01
  2.60569706672E-01  2.62738868342E-01  2.64926087608E-01  2.67131514792E-01
  2.69355301471E-01  2.71597600482E-01  2.73858565934E-01  2.76138353219E-01
  2.78437119023E-01  2.80755021337E-01  2.83092219466E-01  2.85448874042E-01
  2.87825147033E-01  2.90221201757E-01  2.92637202890E-01  2.95073316481E-01
  2.97529709958E-01  3.00006552146E-01  3.02504013275E-01  3.05022264989E-01
  3.07561480365E-01  3.10121833918E-01  3.12703501617E-01  3.15306660896E-01
  3.17931490665E-01  3.20578171325E-01  3.23246884777E-01  3.25937814438E-01
  3.28651145250E-01  3.31387063696E-01  3.34145757812E-01  3.36927417197E-01
  3.39732233030E-01  3.42560398081E-01  3.45412106726E-01  3.48287554957E-01
  3.51186940400E-01  3.54110462323E-01  3.57058321657E-01  3.60030721001E-01
  3.63027864644E-01  3.66049958575E-01  3.69097210496E-01  3.72169829841E-01
  3.75268027786E-01  3.78392017263E-01  3.81542012980E-01  3.84718231431E-01
  3.87920890911E-01  3.91150211534E-01  3.94406415245E-01  3.97689725839E-01
  4.01000368971E-01  4.04338572176E-01  4.07704564883E-01  4.11098578431E-01
  4.14520846086E-01  4.17971603053E-01  4.21451086497E-01  4.24959535557E-01
  4.28497191363E-01  4.32064297053E-01  4.35661097786E-01  4.39287840766E-01
  4.42944775251E-01  4.46632152578E-01  4.50350226172E-01  4.54099251571E-01
  4.57879486440E-01  4.61691190586E-01  4.65534625983E-01  4.69410056782E-01
  4.73317749336E-01  4.77257972214E-01  4.81230996221E-01  4.85237094415E-01
  4.89276542129E-01  4.93349616987E-01  4.97456598926E-01  5.01597770210E-01
  5.05773415455E-01  5.09983821647E-01  5.14229278160E-01  5.18510076776E-01
  5.22826511707E-01  5.27178879615E-01  5.31567479631E-01  5.35992613375E-01
  5.40454584980E-01  5.44953701109E-01  5.49490270979E-01  5.54064606380E-01
  5.58677021699E-01  5.63327833940E-01  5.68017362744E-01  5.72745930415E-01
  5.77513861940E-01  5.82321485010E-01  5.87169130044E-01  5.92057130215E-01
  5.96985821464E-01  6.01955542534E-01  6.06966634984E-01  6.12019443218E-01
  6.17114314508E-01  6.22251599014E-01  6.27431649814E-01  6.32654822924E-01
  6.37921477324E-01  6.43231974982E-01  6.48586680879E-01  6.53985963035E-01
  6.59430192534E-01  6.64919743549E-01  6.70454993366E-01  6.76036322414E-01
  6.81664114289E-01  6.87338755778E-01  6.93060636891E-01  6.98830150883E-01
  7.04647694282E-01  7.10513666918E-01  7.16428471950E-01  7.22392515892E-01
  7.28406208642E-01  7.34469963512E-01  7.40584197253E-01  7.46749330087E-01
  7.52965785731E-01  7.59233991433E-01  7.65554377995E-01  7.71927379808E-01
  7.78353434876E-01  7.84832984852E-01  7.91366475063E-01  7.97954354546E-01
  8.04597076074E-01  8.11295096191E-01  8.18048875239E-01  8.24858877395E-01
  8.31725570699E-01  8.38649427085E-01  8.45630922421E-01  8.52670536531E-01
  8.59768753236E-01  8.66926060385E-01  8.74142949888E-01  8.81419917748E-01
  8.88757464100E-01  8.96156093240E-01  9.03616313665E-01  9.11138638101E-01
  9.18723583545E-01  9.26371671299E-01  9.34083427002E-01  9.41859380669E-01
  9.49700066730E-01  9.57606024060E-01  9.65577796024E-01  9.73615930507E-01
  9.81720979956E-01  9.89893501418E-01  9.98134056577E-01  1.00644321179E+00
  1.01482153813E+00  1.02326961144E+00  1.03178801232E+00  1.04037732623E+00
  1.04903814351E+00  1.05777105940E+00  1.06657667409E+00  1.07545559279E+00
  1.08440842571E+00  1.09343578819E+00  1.10253830064E+00  1.11171658868E+00
  1.12097128310E+00  1.13030301998E+00  1.13971244066E+00  1.14920019183E+00
  1.15876692558E+00  1.16841329941E+00  1.17813997630E+00  1.18794762474E+00
  1.19783691881E+00  1.20780853816E+00  1.21786316815E+00  1.22800149979E+00
  1.23822422990E+00  1.24853206104E+00  1.25892570167E+00  1.26940586612E+00
  1.27997327468E+00  1.29062865363E+00  1.30137273528E+00  1.31220625807E+00
  1.32312996656E+00  1.33414461153E+00  1.34525094998E+00  1.35644974525E+00
  1.36774176699E+00  1.37912779131E+00  1.39060860073E+00  1.40218498431E+00
  1.41385773768E+00  1.42562766309E+00  1.43749556946E+00  1.44946227246E+00
  1.46152859453E+00  1.47369536498E+00  1.48596342000E+00  1.49833360276E+00
  1.51080676344E+00  1.52338375930E+00  1.53606545473E+00  1.54885272133E+00
  1.56174643794E+00  1.57474749073E+00  1.58785677323E+00  1.60107518643E+00
  1.61440363880E+00  1.62784304639E+00  1.64139433286E+00  1.65505842957E+00
  1.66883627563E+00  1.68272881797E+00  1.69673701140E+00  1.71086181868E+00
  1.72510421058E+00  1.73946516595E+00  1.75394567181E+00  1.76854672337E+00
  1.78326932414E+00  1.79811448597E+00  1.81308322916E+00  1.82817658247E+00
  1.84339558325E+00  1.85874127747E+00  1.87421471981E+00  1.88981697375E+00
  1.90554911159E+00  1.92141221458E+00  1.93740737296E+00  1.95353568605E+00
  1.96979826233E+00  1.98619621950E+00  2.00273068455E+00  2.01940279387E+00
  2.03621369331E+00  2.05316453826E+00  2.07025649371E+00  2.08749073436E+00
  2.10486844471E+00  2.12239081908E+00  2.14005906176E+00  2.15787438706E+00
  2.17583801940E+00  2.19395119338E+00  2.21221515390E+00  2.23063115620E+00
  2.24920046598E+00  2.26792435949E+00  2.28680412357E+00  2.30584105582E+00
  2.32503646460E+00  2.34439166918E+00  2.36390799981E+00  2.38358679782E+00
  2.40342941569E+00  2.42343721717E+00  2.44361157738E+00  2.46395388285E+00
  2.48446553168E+00  2.50514793360E+00  2.52600251007E+00  2.54703069440E+00
  2.56823393182E+00  2.58961367958E+00  2.61117140709E+00  2.63290859597E+00
  2.65482674018E+00  2.67692734611E+00  2.69921193270E+00  2.72168203154E+00
  2.74433918695E+00  2.76718495613E+00  2.79022090922E+00  2.81344862945E+00
  2.83686971322E+00  2.86048577021E+00  2.88429842353E+00  2.90830930977E+00
  2.93252007916E+00  2.95693239567E+00  2.98154793711E+00  3.00636839527E+00
  3.03139547602E+00  3.05663089941E+00  3.08207639985E+00  3.10773372616E+00
  3.13360464172E+00  3.15969092460E+00  3.18599436765E+00  3.21251677869E+00
  3.23925998053E+00  3.26622581120E+00  3.29341612402E+00  3.32083278772E+00
  3.34847768661E+00  3.37635272068E+00  3.40445980572E+00  3.43280087350E+00
  3.46137787184E+00  3.49019276479E+00  3.51924753275E+00  3.54854417261E+00
  3.57808469787E+00  3.60787113881E+00  3.63790554260E+00  3.66818997344E+00
  3.69872651274E+00  3.72951725922E+00  3.76056432907E+00  3.79186985612E+00
  3.82343599193E+00  3.85526490599E+00  3.88735878585E+00  3.91971983727E+00
  3.95235028436E+00  3.98525236976E+00  4.01842835478E+00  4.05188051955E+00
  4.08561116317E+00  4.11962260389E+00  4.15391717927E+00  4.18849724631E+00
  4.22336518163E+00  4.25852338167E+00  4.29397426277E+00  4.32972026141E+00
  4.36576383437E+00  4.40210745884E+00  4.43875363267E+00  4.47570487449E+00
  4.51296372389E+00  4.55053274161E+00  4.58841450971E+00  4.62661163172E+00
  4.66512673289E+00  4.70396246027E+00  4.74312148300E+00  4.78260649240E+00
  4.82242020220E+00  4.86256534874E+00  4.90304469112E+00  4.94386101143E+00
  4.98501711489E+00  5.02651583010E+00  5.06836000919E+00  5.11055252804E+00
  5.15309628647E+00  5.19599420845E+00  5.23924924226E+00  5.28286436077E+00
  5.32684256155E+00  5.37118686716E+00  5.41590032531E+00  5.46098600907E+00
  5.50644701711E+00  5.55228647389E+00  5.59850752987E+00  5.64511336175E+00
  5.69210717266E+00  5.73949219242E+00  5.78727167772E+00  5.83544891235E+00
  5.88402720746E+00  5.93300990174E+00  5.98240036171E+00  6.03220198187E+00
  6.08241818502E+00  6.13305242242E+00  6.18410817408E+00  6.23558894897E+00
  6.28749828528E+00  6.33983975066E+00  6.39261694244E+00  6.44583348790E+00
  6.49949304453E+00  6.55359930026E+00  6.60815597373E+00  6.66316681451E+00
  6.71863560341E+00  6.77456615271E+00  6.83096230641E+00  6.88782794053E+00
  6.94516696335E+00  7.00298331568E+00  7.06128097114E+00  7.12006393643E+00
  7.17933625160E+00  7.23910199034E+00  7.29936526024E+00  7.36013020310E+00
  7.42140099518E+00  7.48318184753E+00  7.54547700624E+00  7.60829075275E+00
  7.67162740414E+00  7.73549131343E+00  7.79988686987E+00  7.86481849927E+00
  7.93029066427E+00  7.99630786466E+00  8.06287463768E+00  8.12999555835E+00
  8.19767523980E+00  8.26591833351E+00  8.33472952973E+00  8.40411355773E+00
  8.47407518616E+00  8.54461922336E+00  8.61575051771E+00  8.68747395793E+00
  8.75979447346E+00  8.83271703475E+00  8.90624665367E+00  8.98038838376E+00
  9.05514732067E+00  9.13052860246E+00  9.20653740994E+00  9.28317896707E+00
  9.36045854130E+00  9.43838144393E+00  9.51695303045E+00  9.59617870096E+00
  9.67606390052E+00  9.75661411948E+00  9.83783489393E+00  9.91973180604E+00
  1.00023104844E+01  1.00855766046E+01  1.01695358893E+01  1.02541941089E+01
  1.03395570819E+01  1.04256306750E+01  1.05124208039E+01  1.05999334337E+01
  1.06881745788E+01  1.07771503040E+01  1.08668667244E+01  1.09573300061E+01
  1.10485463664E+01  1.11405220745E+01  1.12332634518E+01  1.13267768721E+01
  1.14210687626E+01  1.15161456036E+01  1.16120139298E+01  1.17086803299E+01
  1.18061514477E+01  1.19044339822E+01  1.20035346882E+01  1.21034603768E+01
  1.22042179155E+01  1.23058142294E+01  1.24082563010E+01  1.25115511709E+01
  1.26157059385E+01  1.27207277621E+01  1.28266238596E+01  1.29334015092E+01
  1.30410680494E+01  1.31496308801E+01  1.32590974626E+01  1.33694753202E+01
  1.34807720392E+01  1.35929952686E+01  1.37061527216E+01  1.38202521750E+01
  1.39353014709E+01  1.40513085164E+01  1.41682812844E+01  1.42862278143E+01
  1.44051562123E+01  1.45250746521E+01  1.46459913757E+01  1.47679146933E+01
  1.48908529846E+01  1.50148146988E+01  1.51398083558E+01  1.52658425460E+01
  1.53929259316E+01  1.55210672468E+01  1.56502752985E+01  1.57805589671E+01
  1.59119272066E+01  1.60443890458E+01  1.61779535886E+01  1.63126300146E+01
  1.64484275800E+01  1.65853556177E+01  1.67234235388E+01  1.68626408322E+01
  1.70030170664E+01  1.71445618889E+01  1.72872850280E+01  1.74311962928E+01
  1.75763055741E+01  1.77226228450E+01  1.78701581615E+01  1.80189216637E+01
  1.81689235757E+01  1.83201742068E+01  1.84726839524E+01  1.86264632942E+01
  1.87815228010E+01  1.89378731300E+01  1.90955250268E+01  1.92544893265E+01
  1.94147769546E+01  1.95763989272E+01  1.97393663524E+01  1.99036904307E+01
  2.00693824558E+01  2.02364538153E+01  2.04049159920E+01  2.05747805638E+01
  2.07460592052E+01  2.09187636880E+01  2.10929058819E+01  2.12684977553E+01
  2.14455513763E+01  2.16240789137E+01  2.18040926372E+01  2.19856049188E+01
  2.21686282337E+01  2.23531751607E+01  2.25392583834E+01  2.27268906910E+01