<PP_INFO>
Generated using APE Version-2.2.0
Author: Unknown Generation date: 2014/08/08
Pseudopotential for: Sb
Exchange-correlation: Perdew-Wang LDA
    2        The Pseudo was generated with a Fully-Relativistic Calculation
State   n   l    occ     rc         ev
5s0.5   5   0    2.00    1.45     -0.480424
5p0.5   5   1    1.00    1.45     -0.199515
5p1.5   5   1    2.00    1.60     -0.176284
</PP_INFO>
<PP_HEADER>
   0                   Version Number
  Sb                   Element
   NC                  Norm - Conserving pseudopotential
    F                  Nonlinear Core Correction
 SLA  PW   NOGX NOGC        Exchange-Correlation functional
    5.00000000000      Z valence
    0.00000000000      Total energy
  0.0000000  0.0000000 Suggested cutoff for wfc and rho
    1                  Max angular momentum component
 1400                  Number of points in mesh
    3    3             Number of Wavefunctions, Number of Projectors
 Wavefunctions         nl  l   occ
                       5s  0  2.00
                       5p  1  1.00
                       5p  1  2.00
</PP_HEADER>
<PP_MESH>
  <PP_R>
  7.14142824814E-05  7.21796711828E-05  7.29532630034E-05  7.37351458607E-05
  7.45254086147E-05  7.53241410775E-05  7.61314340240E-05  7.69473792020E-05
  7.77720693425E-05  7.86055981703E-05  7.94480604148E-05  8.02995518208E-05
  8.11601691590E-05  8.20300102374E-05  8.29091739122E-05  8.37977600991E-05
  8.46958697847E-05  8.56036050380E-05  8.65210690218E-05  8.74483660045E-05
  8.83856013722E-05  8.93328816405E-05  9.02903144663E-05  9.12580086605E-05
  9.22360742004E-05  9.32246222416E-05  9.42237651313E-05  9.52336164207E-05
  9.62542908779E-05  9.72859045012E-05  9.83285745321E-05  9.93824194685E-05
  1.00447559078E-04  1.01524114414E-04  1.02612207823E-04  1.03711962967E-04
  1.04823504831E-04  1.05946959740E-04  1.07082455374E-04  1.08230120779E-04
  1.09390086387E-04  1.10562484026E-04  1.11747446938E-04  1.12945109791E-04
  1.14155608698E-04  1.15379081232E-04  1.16615666437E-04  1.17865504850E-04
  1.19128738514E-04  1.20405510993E-04  1.21695967391E-04  1.23000254366E-04
  1.24318520148E-04  1.25650914557E-04  1.26997589018E-04  1.28358696577E-04
  1.29734391924E-04  1.31124831404E-04  1.32530173038E-04  1.33950576541E-04
  1.35386203342E-04  1.36837216595E-04  1.38303781208E-04  1.39786063853E-04
  1.41284232989E-04  1.42798458881E-04  1.44328913620E-04  1.45875771138E-04
  1.47439207235E-04  1.49019399592E-04  1.50616527796E-04  1.52230773359E-04
  1.53862319738E-04  1.55511352355E-04  1.57178058620E-04  1.58862627953E-04
  1.60565251802E-04  1.62286123668E-04  1.64025439127E-04  1.65783395848E-04
  1.67560193621E-04  1.69356034376E-04  1.71171122209E-04  1.73005663402E-04
  1.74859866447E-04  1.76733942073E-04  1.78628103265E-04  1.80542565292E-04
  1.82477545730E-04  1.84433264488E-04  1.86409943828E-04  1.88407808400E-04
  1.90427085256E-04  1.92468003885E-04  1.94530796235E-04  1.96615696739E-04
  1.98722942343E-04  2.00852772532E-04  2.03005429360E-04  2.05181157471E-04
  2.07380204136E-04  2.09602819272E-04  2.11849255476E-04  2.14119768053E-04
  2.16414615044E-04  2.18734057254E-04  2.21078358285E-04  2.23447784563E-04
  2.25842605371E-04  2.28263092877E-04  2.30709522165E-04  2.33182171269E-04
  2.35681321202E-04  2.38207255989E-04  2.40760262699E-04  2.43340631477E-04
  2.45948655579E-04  2.48584631403E-04  2.51248858524E-04  2.53941639729E-04
  2.56663281046E-04  2.59414091789E-04  2.62194384581E-04  2.65004475400E-04
  2.67844683609E-04  2.70715331993E-04  2.73616746797E-04  2.76549257763E-04
  2.79513198168E-04  2.82508904858E-04  2.85536718291E-04  2.88596982575E-04
  2.91690045504E-04  2.94816258601E-04  2.97975977154E-04  3.01169560263E-04
  3.04397370872E-04  3.07659775819E-04  3.10957145870E-04  3.14289855768E-04
  3.17658284271E-04  3.21062814195E-04  3.24503832461E-04  3.27981730135E-04
  3.31496902476E-04  3.35049748978E-04  3.38640673418E-04  3.42270083899E-04
  3.45938392897E-04  3.49646017313E-04  3.53393378511E-04  3.57180902375E-04
  3.61009019350E-04  3.64878164498E-04  3.68788777541E-04  3.72741302915E-04
  3.76736189818E-04  3.80773892265E-04  3.84854869135E-04  3.88979584224E-04
  3.93148506302E-04  3.97362109159E-04  4.01620871667E-04  4.05925277827E-04
  4.10275816830E-04  4.14672983108E-04  4.19117276393E-04  4.23609201773E-04
  4.28149269748E-04  4.32737996292E-04  4.37375902906E-04  4.42063516682E-04
  4.46801370362E-04  4.51590002394E-04  4.56429957002E-04  4.61321784238E-04
  4.66266040053E-04  4.71263286353E-04  4.76314091070E-04  4.81419028220E-04
  4.86578677972E-04  4.91793626712E-04  4.97064467114E-04  5.02391798200E-04
  5.07776225414E-04  5.13218360689E-04  5.18718822515E-04  5.24278236014E-04
  5.29897233003E-04  5.35576452075E-04  5.41316538665E-04  5.47118145126E-04
  5.52981930801E-04  5.58908562103E-04  5.64898712585E-04  5.70953063018E-04
  5.77072301472E-04  5.83257123389E-04  5.89508231666E-04  5.95826336732E-04
  6.02212156632E-04  6.08666417104E-04  6.15189851667E-04  6.21783201700E-04
  6.28447216528E-04  6.35182653506E-04  6.41990278108E-04  6.48870864011E-04
  6.55825193184E-04  6.62854055977E-04  6.69958251210E-04  6.77138586266E-04
  6.84395877178E-04  6.91730948729E-04  6.99144634538E-04  7.06637777161E-04
  7.14211228184E-04  7.21865848318E-04  7.29602507500E-04  7.37422084991E-04
  7.45325469474E-04  7.53313559160E-04  7.61387261882E-04  7.69547495205E-04
  7.77795186530E-04  7.86131273194E-04  7.94556702583E-04  8.03072432234E-04
  8.11679429949E-04  8.20378673900E-04  8.29171152745E-04  8.38057865737E-04
  8.47039822837E-04  8.56118044834E-04  8.65293563454E-04  8.74567421483E-04
  8.83940672880E-04  8.93414382904E-04  9.02989628229E-04  9.12667497067E-04
  9.22449089294E-04  9.32335516576E-04  9.42327902491E-04  9.52427382659E-04
  9.62635104873E-04  9.72952229226E-04  9.83379928244E-04  9.93919387022E-04
  1.00457180335E-03  1.01533838787E-03  1.02622036418E-03  1.03721896901E-03
  1.04833545233E-03  1.05957107751E-03  1.07092712147E-03  1.08240487480E-03
  1.09400564194E-03  1.10573074130E-03  1.11758150542E-03  1.12955928112E-03
  1.14166542965E-03  1.15390132688E-03  1.16626836338E-03  1.17876794466E-03
  1.19140149127E-03  1.20417043900E-03  1.21707623903E-03  1.23012035807E-03
  1.24330427858E-03  1.25662949889E-03  1.27009753339E-03  1.28370991271E-03
  1.29746818387E-03  1.31137391049E-03  1.32542867292E-03  1.33963406847E-03
  1.35399171157E-03  1.36850323395E-03  1.38317028481E-03  1.39799453104E-03
  1.41297765741E-03  1.42812136672E-03  1.44342738003E-03  1.45889743685E-03
  1.47453329534E-03  1.49033673248E-03  1.50630954432E-03  1.52245354614E-03
  1.53877057268E-03  1.55526247835E-03  1.57193113744E-03  1.58877844432E-03
  1.60580631365E-03  1.62301668063E-03  1.64041150119E-03  1.65799275224E-03
  1.67576243186E-03  1.69372255954E-03  1.71187517643E-03  1.73022234556E-03
  1.74876615204E-03  1.76750870336E-03  1.78645212958E-03  1.80559858360E-03
  1.82495024138E-03  1.84450930221E-03  1.86427798896E-03  1.88425854830E-03
  1.90445325101E-03  1.92486439217E-03  1.94549429149E-03  1.96634529353E-03
  1.98741976797E-03  2.00872010990E-03  2.03024874007E-03  2.05200810519E-03
  2.07400067816E-03  2.09622895843E-03  2.11869547220E-03  2.14140277275E-03
  2.16435344075E-03  2.18755008450E-03  2.21099534028E-03  2.23469187259E-03
  2.25864237452E-03  2.28284956801E-03  2.30731620418E-03  2.33204506362E-03
  2.35703895673E-03  2.38230072404E-03  2.40783323651E-03  2.43363939587E-03
  2.45972213495E-03  2.48608441804E-03  2.51272924115E-03  2.53965963244E-03
  2.56687865251E-03  2.59438939477E-03  2.62219498577E-03  2.65029858557E-03
  2.67870338812E-03  2.70741262157E-03  2.73642954870E-03  2.76575746724E-03
  2.79539971026E-03  2.82535964657E-03  2.85564068106E-03  2.88624625514E-03
  2.91717984708E-03  2.94844497246E-03  2.98004518449E-03  3.01198407451E-03
  3.04426527233E-03  3.07689244666E-03  3.10986930552E-03  3.14319959670E-03
  3.17688710814E-03  3.21093566837E-03  3.24534914697E-03  3.28013145498E-03
  3.31528654535E-03  3.35081841343E-03  3.38673109736E-03  3.42302867855E-03
  3.45971528219E-03  3.49679507765E-03  3.53427227900E-03  3.57215114547E-03
  3.61043598195E-03  3.64913113944E-03  3.68824101561E-03  3.72777005523E-03
  3.76772275072E-03  3.80810364266E-03  3.84891732027E-03  3.89016842198E-03
  3.93186163591E-03  3.97400170044E-03  4.01659340472E-03  4.05964158925E-03
  4.10315114640E-03  4.14712702095E-03  4.19157421072E-03  4.23649776706E-03
  4.28190279546E-03  4.32779445616E-03  4.37417796467E-03  4.42105859241E-03
  4.46844166730E-03  4.51633257437E-03  4.56473675634E-03  4.61365971428E-03
  4.66310700823E-03  4.71308425779E-03  4.76359714282E-03  4.81465140402E-03
  4.86625284365E-03  4.91840732614E-03  4.97112077877E-03  5.02439919235E-03
  5.07824862191E-03  5.13267518734E-03  5.18768507417E-03  5.24328453417E-03
  5.29947988616E-03  5.35627751666E-03  5.41368388063E-03  5.47170550224E-03
  5.53034897556E-03  5.58962096534E-03  5.64952820775E-03  5.71007751118E-03
  5.77127575696E-03  5.83312990020E-03  5.89564697052E-03  5.95883407291E-03
  6.02269838849E-03  6.08724717535E-03  6.15248776938E-03  6.21842758507E-03
  6.28507411640E-03  6.35243493765E-03  6.42051770428E-03  6.48933015380E-03
  6.55888010666E-03  6.62917546711E-03  6.70022422411E-03  6.77203445227E-03
  6.84461431270E-03  6.91797205403E-03  6.99211601324E-03  7.06705461669E-03
  7.14279638106E-03  7.21934991429E-03  7.29672391659E-03  7.37492718139E-03
  7.45396859640E-03  7.53385714455E-03  7.61460190507E-03  7.69621205450E-03
  7.77869686771E-03  7.86206571898E-03  7.94632808307E-03  8.03149353628E-03
  8.11757175754E-03  8.20457252952E-03  8.29250573975E-03  8.38138138170E-03
  8.47120955598E-03  8.56200047142E-03  8.65376444629E-03  8.74651190943E-03
  8.84025340148E-03  8.93499957600E-03  9.03076120079E-03  9.12754915900E-03
  9.22537445047E-03  9.32424819289E-03  9.42418162313E-03  9.52518609849E-03
  9.62727309798E-03  9.73045422365E-03  9.83474120189E-03  9.94014588477E-03
  1.00466802514E-02  1.01543564092E-02  1.02631865955E-02  1.03731831787E-02
  1.04843586596E-02  1.05967256734E-02  1.07102969902E-02  1.08250855174E-02
  1.09411043005E-02  1.10583665248E-02  1.11768855171E-02  1.12966747469E-02
  1.14177478280E-02  1.15401185202E-02  1.16638007309E-02  1.17888085162E-02
  1.19151560833E-02  1.20428577912E-02  1.21719281531E-02  1.23023818377E-02
  1.24342336709E-02  1.25674986374E-02  1.27021918826E-02  1.28383287143E-02
  1.29759246041E-02  1.31149951897E-02  1.32555562762E-02  1.33976238382E-02
  1.35412140215E-02  1.36863431450E-02  1.38330277022E-02  1.39812843638E-02
  1.41311299789E-02  1.42825815772E-02  1.44356563710E-02  1.45903717571E-02
  1.47467453186E-02  1.49047948272E-02  1.50645382449E-02  1.52259937264E-02
  1.53891796209E-02  1.55541144743E-02  1.57208170310E-02  1.58893062368E-02
  1.60596012400E-02  1.62317213946E-02  1.64056862617E-02  1.65815156122E-02
  1.67592294289E-02  1.69388479086E-02  1.71203914648E-02  1.73038807297E-02
  1.74893365564E-02  1.76767800220E-02  1.78662324289E-02  1.80577153083E-02
  1.82512504219E-02  1.84468597647E-02  1.86445655674E-02  1.88443902990E-02
  1.90463566693E-02  1.92504876315E-02  1.94568063848E-02  1.96653363771E-02
  1.98761013075E-02  2.00891251291E-02  2.03044320517E-02  2.05220465448E-02
  2.07419933400E-02  2.09642974337E-02  2.11889840907E-02  2.14160788462E-02
  2.16456075092E-02  2.18775961654E-02  2.21120711799E-02  2.23490592005E-02
  2.25885871605E-02  2.28306822820E-02  2.30753720788E-02  2.33226843594E-02
  2.35726472307E-02  2.38252891005E-02  2.40806386811E-02  2.43387249929E-02
  2.45995773668E-02  2.48632254485E-02  2.51296992010E-02  2.53990289089E-02
  2.56712451811E-02  2.59463789545E-02  2.62244614977E-02  2.65055244145E-02
  2.67895996472E-02  2.70767194806E-02  2.73669165454E-02  2.76602238222E-02
  2.79566746449E-02  2.82563027048E-02  2.85591420540E-02  2.88652271100E-02
  2.91745926589E-02  2.94872738596E-02  2.98033062478E-02  3.01227257404E-02
  3.04455686387E-02  3.07718716335E-02  3.11016718087E-02  3.14350066455E-02
  3.17719140271E-02  3.21124322424E-02  3.24565999910E-02  3.28044563869E-02
  3.31560409636E-02  3.35113936782E-02  3.38705549160E-02  3.42335654952E-02
  3.46004666714E-02  3.49713001425E-02  3.53461080531E-02  3.57249329997E-02
  3.61078180351E-02  3.64948066738E-02  3.68859428964E-02  3.72812711551E-02
  3.76808363783E-02  3.80846839760E-02  3.84928598451E-02  3.89054103740E-02
  3.93223824487E-02  3.97438234574E-02  4.01697812962E-02  4.06003043747E-02
  4.10354416213E-02  4.14752424887E-02  4.19197569596E-02  4.23690355525E-02
  4.28231293273E-02  4.32820898910E-02  4.37459694040E-02  4.42148205855E-02
  4.46886967198E-02  4.51676516622E-02  4.56517398453E-02  4.61410162851E-02
  4.66355365871E-02  4.71353569529E-02  4.76405341863E-02  4.81511257001E-02
  4.86671895223E-02  4.91887843028E-02  4.97159693201E-02  5.02488044880E-02
  5.07873503626E-02  5.13316681489E-02  5.18818197077E-02  5.24378675631E-02
  5.29998749090E-02  5.35679056170E-02  5.41420242428E-02  5.47222960343E-02
  5.53087869384E-02  5.59015636092E-02  5.65006934148E-02  5.71062444456E-02
  5.77182855214E-02  5.83368862001E-02  5.89621167846E-02  5.95940483315E-02
  6.02327526591E-02  6.08783023550E-02  6.15307707853E-02  6.21902321019E-02
  6.28567612519E-02  6.35304339851E-02  6.42113268637E-02  6.48995172702E-02
  6.55950834164E-02  6.62981043525E-02  6.70086599758E-02  6.77268310400E-02
  6.84526991642E-02  6.91863468423E-02  6.99278574524E-02  7.06773152660E-02
  7.14348054581E-02  7.22004141164E-02  7.29742282511E-02  7.37563358053E-02
  7.45468256643E-02  7.53457876662E-02  7.61533126119E-02  7.69694922755E-02
  7.77944194147E-02  7.86281877813E-02  7.94708921320E-02  8.03226282389E-02
  8.11834929005E-02  8.20535839531E-02  8.29330002812E-02  8.38218418293E-02
  8.47202096129E-02  8.56282057304E-02  8.65459333742E-02  8.74734968428E-02
  8.84110015524E-02  8.93585540493E-02  9.03162620213E-02  9.12842343107E-02
  9.22625809263E-02  9.32514130556E-02  9.42508430781E-02  9.52609845777E-02
  9.62819523555E-02  9.73138624431E-02  9.83568321156E-02  9.94109799051E-02
  1.00476425614E-01  1.01553290329E-01  1.02641696433E-01  1.03741767624E-01
  1.04853628922E-01  1.05977406689E-01  1.07113228640E-01  1.08261223861E-01
  1.09421522819E-01  1.10594257381E-01  1.11779560826E-01  1.12977567862E-01
  1.14188414642E-01  1.15412238776E-01  1.16649179350E-01  1.17899376941E-01
  1.19162973631E-01  1.20440113028E-01  1.21730940276E-01  1.23035602076E-01
  1.24354246700E-01  1.25687024012E-01  1.27034085479E-01  1.28395584192E-01
  1.29771674885E-01  1.31162513948E-01  1.32568259448E-01  1.33989071146E-01
  1.35425110515E-01  1.36876540760E-01  1.38343526833E-01  1.39826235455E-01
  1.41324835133E-01  1.42839496183E-01  1.44370390742E-01  1.45917692795E-01
  1.47481578191E-01  1.49062224662E-01  1.50659811848E-01  1.52274521312E-01
  1.53906536563E-01  1.55556043077E-01  1.57223228319E-01  1.58908281762E-01
  1.60611394910E-01  1.62332761319E-01  1.64072576620E-01  1.65831038541E-01
  1.67608346929E-01  1.69404703772E-01  1.71220313223E-01  1.73055381625E-01
  1.74910117530E-01  1.76784731725E-01  1.78679437260E-01  1.80594449464E-01
  1.82529985975E-01  1.84486266765E-01  1.86463514162E-01  1.88461952878E-01
  1.90481810032E-01  1.92523315179E-01  1.94586700332E-01  1.96672199993E-01
  1.98780051176E-01  2.00910493434E-01  2.03063768890E-01  2.05240122261E-01
  2.07439800885E-01  2.09663054755E-01  2.11910136538E-01  2.14181301613E-01
  2.16476808095E-01  2.18796916864E-01  2.21141891598E-01  2.23511998801E-01
  2.25907507830E-01  2.28328690934E-01  2.30775823275E-01  2.33249182966E-01
  2.35749051103E-01  2.38275711791E-01  2.40829452181E-01  2.43410562504E-01
  2.46019336098E-01  2.48656069447E-01  2.51321062211E-01  2.54014617265E-01
  2.56737040726E-01  2.59488641993E-01  2.62269733784E-01  2.65080632165E-01
  2.67921656590E-01  2.70793129938E-01  2.73695378549E-01  2.76628732258E-01
  2.79593524437E-01  2.82590092031E-01  2.85618775595E-01  2.88679919335E-01
  2.91773871146E-01  2.94900982650E-01  2.98061609241E-01  3.01256110119E-01
  3.04484848334E-01  3.07748190828E-01  3.11046508475E-01  3.14380176124E-01
  3.17749572643E-01  3.21155080958E-01  3.24597088101E-01  3.28075985250E-01
  3.31592167779E-01  3.35146035295E-01  3.38737991692E-01  3.42368445189E-01
  3.46037808383E-01  3.49746498293E-01  3.53494936405E-01  3.57283548724E-01
  3.61112765820E-01  3.64983022880E-01  3.68894759751E-01  3.72848420999E-01
  3.76844455950E-01  3.80883318748E-01  3.84965468405E-01  3.89091368852E-01
  3.93261488991E-01  3.97476302750E-01  4.01736289137E-01  4.06041932294E-01
  4.10393721551E-01  4.14792151483E-01  4.19237721966E-01  4.23730938231E-01
  4.28272310927E-01  4.32862356175E-01  4.37501595627E-01  4.42190556526E-01
  4.46929771766E-01  4.51719779951E-01  4.56561125461E-01  4.61454358507E-01
  4.66400035197E-01  4.71398717602E-01  4.76450973815E-01  4.81557378018E-01
  4.86718510545E-01  4.91934957954E-01  4.97207313085E-01  5.02536175135E-01
  5.07922149721E-01  5.13365848952E-01  5.18867891497E-01  5.24428902655E-01
  5.30049514427E-01  5.35730365588E-01  5.41472101759E-01  5.47275375481E-01
  5.53140846286E-01  5.59069180779E-01  5.65061052705E-01  5.71117143032E-01
  5.77238140028E-01  5.83424739334E-01  5.89677644049E-01  5.95997564807E-01
  6.02385219858E-01  6.08841335150E-01  6.15366644412E-01  6.21961889237E-01
  6.28627819163E-01  6.35365191766E-01  6.42174772737E-01  6.49057335978E-01
  6.56013663680E-01  6.63044546422E-01  6.70150783252E-01  6.77333181786E-01
  6.84592558293E-01  6.91929737790E-01  6.99345554138E-01  7.06840850135E-01
  7.14416477609E-01  7.22073297522E-01  7.29812180058E-01  7.37634004733E-01
  7.45539660484E-01  7.53530045780E-01  7.61606068716E-01  7.69768647121E-01
  7.78018708660E-01  7.86357190942E-01  7.94785041624E-01  8.03303218518E-01
  8.11912689705E-01  8.20614433637E-01  8.29409439257E-01  8.38298706105E-01
  8.47283244433E-01  8.56364075322E-01  8.65542230795E-01  8.74818753937E-01
  8.84194699012E-01  8.93671131583E-01  9.03249128633E-01  9.12929778689E-01
  9.22714181942E-01  9.32603450377E-01  9.42598707896E-01  9.52701090444E-01
  9.62911746145E-01  9.73231835424E-01  9.83662531146E-01  9.94205018744E-01
  1.00486049636E+00  1.01563017497E+00  1.02651527853E+00  1.03751704413E+00
  1.04863672209E+00  1.05987557616E+00  1.07123488361E+00  1.08271593541E+00
  1.09432003637E+00  1.10604850528E+00  1.11790267506E+00  1.12988389292E+00
  1.14199352051E+00  1.15423293408E+00  1.16660352461E+00  1.17910669800E+00
  1.19174387523E+00  1.20451649250E+00  1.21742600138E+00  1.23047386903E+00
  1.24366157833E+00  1.25699062803E+00  1.27046253296E+00  1.28407882419E+00
  1.29784104920E+00  1.31175077203E+00  1.32580957350E+00  1.34001905139E+00
  1.35438082058E+00  1.36889651326E+00  1.38356777912E+00  1.39839628554E+00
  1.41338371774E+00  1.42853177904E+00  1.44384219098E+00  1.45931669358E+00
  1.47495704549E+00  1.49076502421E+00  1.50674242630E+00  1.52289106756E+00
  1.53921278328E+00  1.55570942838E+00  1.57238287770E+00  1.58923502614E+00
  1.60626778892E+00  1.62348310180E+00  1.64088292128E+00  1.65846922481E+00
  1.67624401107E+00  1.69420930011E+00  1.71236713369E+00  1.73071957541E+00
  1.74926871099E+00  1.76801664853E+00  1.78696551870E+00  1.80611747501E+00
  1.82547469405E+00  1.84503937575E+00  1.86481374361E+00  1.88480004495E+00
  1.90500055119E+00  1.92541755809E+00  1.94605338602E+00  1.96691038020E+00
  1.98799091100E+00  2.00929737421E+00  2.03083219126E+00  2.05259780956E+00
  2.07459670274E+00  2.09683137095E+00  2.11930434113E+00  2.14201816729E+00
  2.16497543083E+00  2.18817874082E+00  2.21163073427E+00  2.23533407647E+00
  2.25929146128E+00  2.28350561141E+00  2.30797927878E+00  2.33271524478E+00
  2.35771632062E+00  2.38298534763E+00  2.40852519761E+00  2.43433877312E+00
  2.46042900784E+00  2.48679886690E+00  2.51345134718E+00  2.54038947770E+00
  2.56761631995E+00  2.59513496822E+00  2.62294854997E+00  2.65106022616E+00
  2.67947319166E+00  2.70819067555E+00  2.73721594154E+00  2.76655228831E+00
  2.79620304989E+00  2.82617159606E+00  2.85646133269E+00  2.88707570217E+00
  2.91801818379E+00  2.94929229411E+00  2.98090158739E+00  3.01284965598E+00
  3.04514013074E+00  3.07777668143E+00  3.11076301716E+00  3.14410288677E+00
  3.17780007930E+00  3.21185842438E+00  3.24628179269E+00  3.28107409641E+00
  3.31623928963E+00  3.35178136883E+00  3.38770437331E+00  3.42401238567E+00
  3.46070953227E+00  3.49779998369E+00  3.53528795521E+00  3.57317770728E+00
  3.61147354602E+00  3.65017982370E+00  3.68930093923E+00  3.72884133867E+00
  3.76880551574E+00  3.80919801230E+00  3.85002341892E+00  3.89128637533E+00
  3.93299157102E+00  3.97514374572E+00  4.01774768998E+00  4.06080824566E+00
  4.10433030654E+00  4.14831881885E+00  4.19277878181E+00  4.23771524824E+00
  4.28313332511E+00  4.32903817411E+00  4.37543501227E+00  4.42232911253E+00
  4.46972580433E+00  4.51763047425E+00  4.56604856657E+00  4.61498558395E+00
  4.66444708802E+00  4.71443870001E+00  4.76496610138E+00  4.81603503452E+00
  4.86765130332E+00  4.91982077392E+00  4.97254937530E+00  5.02584309999E+00
  5.07970800475E+00  5.13415021125E+00  5.18917590676E+00  5.24479134490E+00
  5.30100284626E+00  5.35781679921E+00  5.41523966058E+00  5.47327795639E+00
  5.53193828263E+00  5.59122730594E+00  5.65115176445E+00  5.71171846848E+00
  5.77293430136E+00  5.83480622019E+00  5.89734125661E+00  5.96054651766E+00
  6.02442918651E+00  6.08899652336E+00  6.15425586617E+00  6.22021463159E+00
  6.28688031575E+00  6.35426049509E+00  6.42236282729E+00  6.49119505207E+00
  6.56076499214E+00  6.63108055401E+00  6.70214972894E+00  6.77398059386E+00
  6.84658131224E+00  6.91996013505E+00  6.99412540169E+00  7.06908554094E+00
  7.14484907191E+00  7.22142460503E+00  7.29882084300E+00  7.37704658180E+00
  7.45611071166E+00  7.53602221811E+00  7.61679018300E+00  7.69842378548E+00
  7.78093230311E+00  7.86432511285E+00  7.94861169219E+00  8.03380162017E+00
  8.11990457852E+00  8.20693035272E+00  8.29488883311E+00  8.38379001608E+00
  8.47364400510E+00  8.56446101195E+00  8.65625135788E+00  8.74902547471E+00
  8.84279390610E+00  8.93756730871E+00  9.03335645339E+00  9.13017222645E+00
  9.22802563086E+00  9.32692778754E+00  9.42688993657E+00  9.52792343851E+00
  9.63003977568E+00  9.73325055345E+00  9.83756750159E+00  9.94300247558E+00
  1.00495674580E+01  1.01572745597E+01  1.02661360215E+01  1.03761642154E+01
  1.04873716459E+01  1.05997709515E+01  1.07133749064E+01  1.08281964214E+01
  1.09442485459E+01  1.10615444689E+01  1.11800975211E+01  1.12999211758E+01
  1.14210290508E+01  1.15434349098E+01  1.16671526642E+01  1.17921963742E+01
  1.19185802509E+01  1.20463186576E+01  1.21754261117E+01  1.23059172859E+01
  1.24378070106E+01  1.25711102747E+01  1.27058422279E+01  1.28420181825E+01
  1.29796536145E+01  1.31187641660E+01  1.32593656469E+01  1.34014740362E+01
  1.35451054843E+01  1.36902763148E+01  1.38370030261E+01  1.39853022936E+01
  1.41351909712E+01  1.42866860936E+01  1.44398048779E+01  1.45945647259E+01
  1.47509832259E+01  1.49090781546E+01  1.50688674793E+01  1.52303693598E+01
  1.53936021505E+01  1.55585844027E+01  1.57253348663E+01  1.58938724923E+01
  1.60642164348E+01  1.62363860531E+01  1.64104009141E+01  1.65862807943E+01
  1.67640456822E+01  1.69437157805E+01  1.71253115086E+01  1.73088535044E+01
  1.74943626274E+01  1.76818599602E+01  1.78713668119E+01  1.80629047195E+01
  1.82564954510E+01  1.84521610078E+01  1.86499236270E+01  1.88498057841E+01
  1.90518301953E+01  1.92560198205E+01  1.94623978656E+01  1.96709877850E+01
  1.98818132848E+01  2.00948983250E+01  2.03102671224E+01  2.05279441534E+01
  2.07479541567E+01  2.09703221360E+01  2.11950733632E+01  2.14222333810E+01
  2.16518280058E+01  2.18838833307E+01  2.21184257284E+01  2.23554818544E+01
  2.25950786498E+01  2.28372433444E+01  2.30820034599E+01  2.33293868130E+01
  2.35794215183E+01  2.38321359921E+01  2.40875589550E+01  2.43457194353E+01
  2.46066467728E+01  2.48703706214E+01  2.51369209530E+01  2.54063280606E+01
  2.56786225621E+01  2.59538354032E+01  2.62319978616E+01  2.65131415500E+01
  2.67972984200E+01  2.70845007656E+01  2.73747812270E+01  2.76681727942E+01
  2.79647088107E+01  2.82644229774E+01  2.85673493564E+01  2.88735223749E+01
  2.91829768289E+01  2.94957478877E+01  2.98118710971E+01  3.01313823841E+01
  3.04543180608E+01  3.07807148282E+01  3.11106097811E+01  3.14440404115E+01
  3.17810446132E+01  3.21216606864E+01  3.24659273416E+01  3.28138837042E+01
  3.31655693190E+01  3.35210241545E+01  3.38802886077E+01  3.42434035086E+01
  3.46104101246E+01  3.49813501655E+01  3.53562657881E+01  3.57351996010E+01
  3.61181946697E+01  3.65052945208E+01  3.68965431478E+01  3.72919850156E+01
  3.76916650655E+01  3.80956287207E+01  3.85039218910E+01  3.89165909783E+01
  3.93336828821E+01  3.97552450041E+01  4.01813252544E+01  4.06119720563E+01
  4.10472343522E+01  4.14871616092E+01  4.19318038243E+01  4.23812115305E+01
  4.28354358024E+01  4.32945282618E+01  4.37585410841E+01  4.42275270037E+01
  4.47015393201E+01  4.51806319042E+01  4.56648592042E+01  4.61542762518E+01
  4.66489386686E+01  4.71489026723E+01  4.76542250832E+01  4.81649633304E+01
  4.86811754585E+01  4.92029201345E+01  4.97302566537E+01  5.02632449474E+01
  5.08019455889E+01  5.13464198007E+01  5.18967294616E+01  5.24529371136E+01
  5.30151059688E+01  5.35832999169E+01  5.41575835324E+01  5.47380220819E+01
  5.53246815314E+01  5.59176285538E+01  5.65169305369E+01  5.71226555903E+01
  5.77348725541E+01  5.83536510057E+01  5.89790612684E+01  5.96111744193E+01
  6.02500622972E+01  6.08957975107E+01  6.15484534467E+01  6.22081042788E+01
  6.28748249753E+01  6.35486913081E+01  6.42297798612E+01  6.49181680392E+01
  6.56139340766E+01  6.63171570463E+01  6.70279168685E+01  6.77462943201E+01
  6.84723710436E+01  6.92062295568E+01  6.99479532616E+01  7.06976264538E+01
  7.14553343328E+01  7.22211630110E+01  7.29951995238E+01  7.37775318394E+01
  7.45682488687E+01  7.53674404756E+01  7.61751974872E+01  7.69916117038E+01
  7.78167759099E+01  7.86507838842E+01  7.94937304105E+01  8.03457112886E+01
  8.12068233448E+01  8.20771644435E+01  8.29568334975E+01  8.38459304801E+01
  8.47445564359E+01  8.56528134926E+01  8.65708048722E+01  8.74986349032E+01
  8.84364090321E+01  8.93842338358E+01  9.03422170332E+01  9.13104674977E+01
  9.22890952696E+01  9.32782115687E+01  9.42779288066E+01  9.52883605998E+01
  9.63096217825E+01  9.73418284195E+01  9.83850978198E+01  9.94395485494E+01
  1.00505300445E+02  1.01582474628E+02  1.02671193518E+02  1.03771580846E+02
  1.04883761670E+02  1.06007862387E+02  1.07144010750E+02  1.08292335881E+02
  1.09452968285E+02  1.10626039866E+02  1.11811683942E+02  1.13010035261E+02
  1.14221230013E+02  1.15445405848E+02  1.16682701893E+02  1.17933258765E+02
  1.19197218587E+02  1.20474725007E+02  1.21765923212E+02  1.23070959944E+02
  1.24389983520E+02  1.25723143844E+02  1.27070592428E+02  1.28432482408E+02
  1.29808968560E+02  1.31200207322E+02  1.32606356804E+02  1.34027576813E+02
  1.35464028870E+02  1.36915876226E+02  1.38383283880E+02  1.39866418601E+02
  1.41365448946E+02  1.42880545278E+02  1.44411879784E+02  1.45959626500E+02
  1.47523961323E+02  1.49105062040E+02  1.50703108339E+02  1.52318281836E+02
  1.53950766094E+02  1.55600746643E+02  1.57268410999E+02  1.58953948691E+02
  1.60657551278E+02  1.62379412372E+02  1.64119727660E+02  1.65878694926E+02
  1.67656514075E+02  1.69453387154E+02  1.71269518374E+02  1.73105114136E+02
  1.74960383053E+02  1.76835535974E+02  1.78730786007E+02  1.80646348545E+02
  1.82582441290E+02  1.84539284274E+02  1.86517099891E+02  1.88516112916E+02
  1.90536550536E+02  1.92578642368E+02  1.94642620496E+02  1.96728719486E+02
  1.98837176421E+02  2.00968230924E+02  2.03122125186E+02  2.05299103996E+02
  2.07499414762E+02  2.09723307548E+02  2.11971035096E+02  2.14242852856E+02
  </PP_R>
  <PP_RAB>
  7.61316214250E-07  7.69475686114E-07  7.77722607819E-07  7.86057916615E-07
  7.94482559798E-07  8.02997494817E-07  8.11603689384E-07  8.20302121579E-07
  8.29093779968E-07  8.37979663710E-07  8.46960782674E-07  8.56038157551E-07
  8.65212819972E-07  8.74485812625E-07  8.83858189373E-07  8.93331015373E-07
  9.02905367199E-07  9.12582332962E-07  9.22363012436E-07  9.32248517182E-07
  9.42239970673E-07  9.52338508425E-07  9.62545278121E-07  9.72861439748E-07
  9.83288165723E-07  9.93826641027E-07  1.00447806335E-06  1.01524364320E-06
  1.02612460407E-06  1.03712218258E-06  1.04823762858E-06  1.05947220533E-06
  1.07082718962E-06  1.08230387193E-06  1.09390355656E-06  1.10562756181E-06
  1.11747722009E-06  1.12945387810E-06  1.14155889697E-06  1.15379365243E-06
  1.16615953492E-06  1.17865794982E-06  1.19129031755E-06  1.20405807377E-06
  1.21696266951E-06  1.23000557136E-06  1.24318826164E-06  1.25651223853E-06
  1.26997901628E-06  1.28359012538E-06  1.29734711271E-06  1.31125154173E-06
  1.32530499267E-06  1.33950906267E-06  1.35386536601E-06  1.36837553426E-06
  1.38304121649E-06  1.39786407942E-06  1.41284580766E-06  1.42798810386E-06
  1.44329268892E-06  1.45876130218E-06  1.47439570163E-06  1.49019766410E-06
  1.50616898546E-06  1.52231148082E-06  1.53862698477E-06  1.55511735153E-06
  1.57178445521E-06  1.58863019000E-06  1.60565647040E-06  1.62286523143E-06
  1.64025842882E-06  1.65783803931E-06  1.67560606077E-06  1.69356451254E-06
  1.71171543555E-06  1.73006089263E-06  1.74860296873E-06  1.76734377111E-06
  1.78628542966E-06  1.80543009706E-06  1.82477994907E-06  1.84433718478E-06
  1.86410402685E-06  1.88408272174E-06  1.90427554001E-06  1.92468477654E-06
  1.94531275081E-06  1.96616180717E-06  1.98723431508E-06  2.00853266940E-06
  2.03005929067E-06  2.05181662534E-06  2.07380714611E-06  2.09603335218E-06